# OOMMF OVF 2.0
# 
# Segment count: 1
# 
# Begin: Segment
# Begin: Header
# 
# Title: Field
# Desc: File generated by Field class
# meshunit: m
# meshtype: rectangular
# xbase: -4.7499999999999995e-08
# ybase: -4.7499999999999995e-08
# zbase: 2.5e-09
# xnodes: 20
# ynodes: 20
# znodes: 1
# xstepsize: 5e-09
# ystepsize: 5e-09
# zstepsize: 5e-09
# xmin: -5e-08
# ymin: -5e-08
# zmin: 0.0
# xmax: 5e-08
# ymax: 5e-08
# zmax: 5e-09
# valuedim: 3
# valuelabels: field_x field_y field_z
# valueunits: None None None
# 
# End: Header
# 
# Begin: Data Text
 22950.227003469 22950.227003469 382625.893218139
 64508.1008986003 29050.0205167349 377426.550770389
 94537.9611130701 40387.7249239889 369982.980127529
 109326.446792637 55106.0477949931 363960.233443315
 108832.204164779 70497.6281209524 361443.821037178
 95972.7728610959 83751.5100324348 362258.072976489
 75522.7084125036 93029.4559574386 364825.767782791
 52463.7442658661 98124.0643813965 367525.813415713
 30216.3717511184 100171.834329028 369470.667963447
 9788.40289345941 100696.835121277 370432.631615188
 -9788.40289345941 100696.835121277 370432.631615188
 -30216.3717511185 100171.834329028 369470.667963447
 -52463.744265866 98124.0643813966 367525.813415713
 -75522.7084125036 93029.4559574387 364825.767782791
 -95972.7728610959 83751.5100324349 362258.072976489
 -108832.204164779 70497.6281209524 361443.821037178
 -109326.446792637 55106.0477949932 363960.233443315
 -94537.9611130701 40387.7249239889 369982.980127529
 -64508.1008986003 29050.020516735 377426.550770389
 -22950.227003469 22950.227003469 382625.893218139
 29050.0205167349 64508.1008986003 377426.550770389
 82067.3452702439 82067.3452702439 366040.84701108
 120912.637441775 114364.042379952 346059.243363604
 139651.823858414 155375.478554032 322198.430717972
 137273.605242026 196806.78081454 299798.346108303
 118121.646692714 230994.384859035 283098.694356222
 89921.9975968074 253881.729690994 273704.405659297
 60240.6199011497 265889.63105677 270425.168596453
 33598.9039264178 270438.946480699 270536.300487297
 10675.7181484359 271479.991090332 271368.095913298
 -10675.7181484359 271479.991090332 271368.095913297
 -33598.9039264178 270438.946480699 270536.300487297
 -60240.6199011497 265889.63105677 270425.168596453
 -89921.9975968074 253881.729690994 273704.405659297
 -118121.646692714 230994.384859035 283098.694356222
 -137273.605242026 196806.78081454 299798.346108303
 -139651.823858414 155375.478554032 322198.430717972
 -120912.637441775 114364.042379952 346059.243363604
 -82067.3452702438 82067.3452702439 366040.84701108
 -29050.0205167349 64508.1008986003 377426.550770389
 40387.7249239889 94537.9611130701 369982.980127529
 114364.042379952 120912.637441775 346059.243363604
 168224.086199072 168224.086199072 301425.469469609
 191797.278243524 225468.103197957 244609.767790846
 183549.202268522 279457.40317656 188863.046031781
 152149.767873109 320830.217144716 146199.931268907
 111013.460956097 346947.742792125 121487.757646598
 71286.2397450901 360308.047895364 112037.416271698
 38341.122490517 365517.562242625 111278.344786288
 11918.2369603708 366873.126122941 112774.398497786
 -11918.2369603707 366873.126122941 112774.398497786
 -38341.1224905169 365517.562242625 111278.344786288
 -71286.23974509 360308.047895364 112037.416271698
 -111013.460956097 346947.742792125 121487.757646598
 -152149.767873109 320830.217144716 146199.931268907
 -183549.202268522 279457.40317656 188863.046031781
 -191797.278243524 225468.103197957 244609.767790846
 -168224.086199072 168224.086199072 301425.469469609
 -114364.042379952 120912.637441775 346059.243363604
 -40387.7249239889 94537.9611130701 369982.980127529
 55106.0477949932 109326.446792637 363960.233443315
 155375.478554032 139651.823858414 322198.430717972
 225468.103197957 191797.278243524 244609.767790846
 250392.368362197 250392.368362197 148537.280613116
 231265.362919788 300795.480919144 59113.5396690137
 184740.941947814 336601.211086373 -5138.97493876402
 130486.335484316 358898.189052746 -40266.6878018799
 81657.986107453 371452.38779659 -53019.7784330257
 43104.5429177281 377763.942541802 -53781.0570287348
 13260.4655630671 380284.383743902 -51613.4433415522
 -13260.465563067 380284.383743902 -51613.4433415522
 -43104.5429177281 377763.942541802 -53781.0570287349
 -81657.986107453 371452.387796589 -53019.7784330257
 -130486.335484316 358898.189052746 -40266.6878018799
 -184740.941947814 336601.211086373 -5138.97493876415
 -231265.362919788 300795.480919144 59113.5396690137
 -250392.368362197 250392.368362197 148537.280613116
 -225468.103197957 191797.278243524 244609.767790846
 -155375.478554032 139651.823858414 322198.430717972
 -55106.0477949932 109326.446792637 363960.233443315
 70497.6281209524 108832.204164779 361443.821037178
 196806.78081454 137273.605242026 299798.346108303
 279457.40317656 183549.202268522 188863.046031781
 300795.480919144 231265.362919788 59113.5396690137
 268887.986787636 268887.986787636 -53427.5315037508
 209363.591707534 294774.27984357 -129348.407064121
 145735.456528382 312264.281611295 -169434.928926257
 90816.1632404916 324347.650434294 -184409.940491367
 48051.633338664 332292.223995959 -186356.965003474
 14833.1302579765 336303.620025086 -184758.906158195
 -14833.1302579765 336303.620025086 -184758.906158195
 -48051.6333386639 332292.223995959 -186356.965003474
 -90816.1632404916 324347.650434294 -184409.940491367
 -145735.456528382 312264.281611295 -169434.928926257
 -209363.591707534 294774.27984357 -129348.407064121
 -268887.986787636 268887.986787636 -53427.5315037509
 -300795.480919144 231265.362919788 59113.5396690136
 -279457.40317656 183549.202268522 188863.046031781
 -196806.78081454 137273.605242026 299798.346108303
 -70497.6281209524 108832.204164779 361443.821037178
 83751.5100324349 95972.7728610959 362258.072976489
 230994.384859035 118121.646692714 283098.694356222
 320830.217144716 152149.767873109 146199.931268907
 336601.211086373 184740.941947814 -5138.97493876406
 294774.27984357 209363.591707534 -129348.407064121
 227197.319637411 227197.319637411 -210282.562042487
 158345.848346365 241270.829813691 -253319.914322745
 99720.4190968337 252926.362308607 -271182.767270502
 53544.7245569266 261727.831437777 -275839.635881071
 16709.4272609507 266544.397745226 -275918.247079177
 -16709.4272609506 266544.397745226 -275918.247079177
 -53544.7245569265 261727.831437777 -275839.635881071
 -99720.4190968337 252926.362308607 -271182.767270502
 -158345.848346365 241270.829813691 -253319.914322746
 -227197.319637411 227197.319637411 -210282.562042487
 -294774.27984357 209363.591707534 -129348.407064121
 -336601.211086373 184740.941947814 -5138.97493876416
 -320830.217144716 152149.767873109 146199.931268907
 -230994.384859035 118121.646692714 283098.694356222
 -83751.510032435 95972.7728610959 362258.072976489
 93029.4559574386 75522.7084125036 364825.767782791
 253881.729690994 89921.9975968074 273704.405659297
 346947.742792125 111013.460956097 121487.757646598
 358898.189052746 130486.335484316 -40266.6878018799
 312264.281611295 145735.456528382 -169434.928926257
 241270.829813691 158345.848346365 -253319.914322745
 169917.90906548 169917.90906548 -299519.295467973
 108746.025178926 180478.799117624 -321026.019314393
 59410.0191370146 188849.571762251 -329032.352317145
 18756.2245147601 193532.299623706 -331133.587913265
 -18756.2245147601 193532.299623706 -331133.587913265
 -59410.0191370145 188849.571762251 -329032.352317145
 -108746.025178926 180478.799117624 -321026.019314393
 -169917.90906548 169917.90906548 -299519.295467973
 -241270.829813691 158345.848346365 -253319.914322746
 -312264.281611295 145735.456528382 -169434.928926257
 -358898.189052746 130486.335484316 -40266.6878018799
 -346947.742792125 111013.460956097 121487.757646598
 -253881.729690994 89921.9975968074 273704.405659297
 -93029.4559574386 75522.7084125036 364825.767782791
 98124.0643813965 52463.7442658661 367525.813415713
 265889.63105677 60240.6199011497 270425.168596453
 360308.047895364 71286.2397450901 112037.416271698
 371452.38779659 81657.986107453 -53019.7784330257
 324347.650434294 90816.1632404917 -184409.940491367
 252926.362308607 99720.4190968336 -271182.767270502
 180478.799117624 108746.025178926 -321026.019314393
 117284.884453845 117284.884453845 -346330.061873492
 65008.5904880138 124114.762625191 -357526.794606019
 20711.776071051 127941.899935996 -361466.30904242
 -20711.776071051 127941.899935996 -361466.30904242
 -65008.5904880138 124114.762625191 -357526.794606019
 -117284.884453845 117284.884453845 -346330.061873492
 -180478.799117624 108746.025178926 -321026.019314393
 -252926.362308607 99720.4190968336 -271182.767270502
 -324347.650434294 90816.1632404916 -184409.940491367
 -371452.38779659 81657.9861074529 -53019.7784330257
 -360308.047895364 71286.23974509 112037.416271698
 -265889.63105677 60240.6199011496 270425.168596453
 -98124.0643813965 52463.7442658661 367525.813415713
 100171.834329028 30216.3717511185 369470.667963447
 270438.946480699 33598.9039264178 270536.300487297
 365517.562242625 38341.122490517 111278.344786288
 377763.942541802 43104.5429177282 -53781.0570287348
 332292.223995959 48051.633338664 -186356.965003474
 261727.831437777 53544.7245569266 -275839.635881071
 188849.571762251 59410.0191370146 -329032.352317145
 124114.762625191 65008.5904880138 -357526.794606019
 69472.184210518 69472.184210518 -371218.576100442
 22265.1293642711 71963.9675009086 -376538.778077266
 -22265.1293642711 71963.9675009086 -376538.778077266
 -69472.1842105179 69472.1842105179 -371218.576100442
 -124114.762625191 65008.5904880138 -357526.794606019
 -188849.571762251 59410.0191370145 -329032.352317145
 -261727.831437777 53544.7245569265 -275839.635881071
 -332292.223995959 48051.6333386639 -186356.965003474
 -377763.942541802 43104.5429177281 -53781.0570287349
 -365517.562242625 38341.1224905169 111278.344786288
 -270438.946480699 33598.9039264178 270536.300487297
 -100171.834329028 30216.3717511184 369470.667963447
 100696.835121277 9788.40289345941 370432.631615188
 271479.991090332 10675.7181484359 271368.095913297
 366873.126122941 11918.2369603707 112774.398497786
 380284.383743902 13260.4655630671 -51613.4433415522
 336303.620025086 14833.1302579765 -184758.906158195
 266544.397745226 16709.4272609507 -275918.247079177
 193532.299623706 18756.2245147601 -331133.587913265
 127941.899935996 20711.776071051 -361466.30904242
 71963.9675009086 22265.1293642711 -376538.778077266
 23129.6766618353 23129.6766618353 -382604.281360047
 -23129.6766618353 23129.6766618353 -382604.281360047
 -71963.9675009086 22265.1293642711 -376538.778077266
 -127941.899935996 20711.776071051 -361466.30904242
 -193532.299623706 18756.2245147601 -331133.587913265
 -266544.397745226 16709.4272609506 -275918.247079177
 -336303.620025086 14833.1302579765 -184758.906158195
 -380284.383743902 13260.465563067 -51613.4433415522
 -366873.126122941 11918.2369603707 112774.398497786
 -271479.991090332 10675.7181484359 271368.095913298
 -100696.835121277 9788.40289345942 370432.631615188
 100696.835121277 -9788.40289345938 370432.631615188
 271479.991090332 -10675.7181484359 271368.095913298
 366873.126122941 -11918.2369603707 112774.398497786
 380284.383743902 -13260.465563067 -51613.4433415522
 336303.620025086 -14833.1302579765 -184758.906158195
 266544.397745226 -16709.4272609506 -275918.247079177
 193532.299623706 -18756.2245147601 -331133.587913265
 127941.899935996 -20711.776071051 -361466.30904242
 71963.9675009086 -22265.1293642711 -376538.778077266
 23129.6766618353 -23129.6766618353 -382604.281360047
 -23129.6766618353 -23129.6766618353 -382604.281360047
 -71963.9675009086 -22265.1293642711 -376538.778077266
 -127941.899935996 -20711.776071051 -361466.30904242
 -193532.299623706 -18756.2245147601 -331133.587913265
 -266544.397745226 -16709.4272609507 -275918.247079177
 -336303.620025086 -14833.1302579765 -184758.906158195
 -380284.383743902 -13260.465563067 -51613.4433415522
 -366873.126122941 -11918.2369603708 112774.398497786
 -271479.991090332 -10675.7181484359 271368.095913297
 -100696.835121277 -9788.40289345943 370432.631615188
 100171.834329028 -30216.3717511185 369470.667963447
 270438.946480699 -33598.9039264178 270536.300487297
 365517.562242625 -38341.122490517 111278.344786288
 377763.942541802 -43104.5429177281 -53781.0570287349
 332292.223995959 -48051.6333386639 -186356.965003474
 261727.831437777 -53544.7245569265 -275839.635881071
 188849.571762251 -59410.0191370145 -329032.352317145
 124114.762625191 -65008.5904880138 -357526.794606019
 69472.184210518 -69472.1842105179 -371218.576100442
 22265.129364271 -71963.9675009086 -376538.778077266
 -22265.1293642711 -71963.9675009086 -376538.778077266
 -69472.1842105179 -69472.184210518 -371218.576100442
 -124114.762625191 -65008.5904880138 -357526.794606019
 -188849.571762251 -59410.0191370146 -329032.352317145
 -261727.831437777 -53544.7245569266 -275839.635881071
 -332292.223995959 -48051.633338664 -186356.965003474
 -377763.942541802 -43104.5429177281 -53781.0570287348
 -365517.562242625 -38341.122490517 111278.344786288
 -270438.946480699 -33598.9039264178 270536.300487297
 -100171.834329028 -30216.3717511184 369470.667963447
 98124.0643813966 -52463.7442658661 367525.813415713
 265889.63105677 -60240.6199011496 270425.168596453
 360308.047895364 -71286.23974509 112037.416271698
 371452.38779659 -81657.9861074529 -53019.7784330257
 324347.650434294 -90816.1632404916 -184409.940491367
 252926.362308607 -99720.4190968336 -271182.767270502
 180478.799117624 -108746.025178926 -321026.019314393
 117284.884453845 -117284.884453845 -346330.061873492
 65008.5904880138 -124114.762625191 -357526.794606019
 20711.776071051 -127941.899935996 -361466.30904242
 -20711.776071051 -127941.899935996 -361466.30904242
 -65008.5904880138 -124114.762625191 -357526.794606019
 -117284.884453845 -117284.884453845 -346330.061873492
 -180478.799117624 -108746.025178926 -321026.019314393
 -252926.362308607 -99720.4190968337 -271182.767270502
 -324347.650434294 -90816.1632404916 -184409.940491367
 -371452.387796589 -81657.986107453 -53019.7784330256
 -360308.047895364 -71286.23974509 112037.416271698
 -265889.63105677 -60240.6199011497 270425.168596453
 -98124.0643813965 -52463.7442658661 367525.813415713
 93029.4559574387 -75522.7084125036 364825.767782791
 253881.729690994 -89921.9975968074 273704.405659297
 346947.742792125 -111013.460956097 121487.757646598
 358898.189052746 -130486.335484316 -40266.68780188
 312264.281611295 -145735.456528382 -169434.928926257
 241270.829813691 -158345.848346365 -253319.914322746
 169917.90906548 -169917.90906548 -299519.295467973
 108746.025178926 -180478.799117624 -321026.019314393
 59410.0191370146 -188849.571762251 -329032.352317145
 18756.2245147601 -193532.299623706 -331133.587913265
 -18756.2245147601 -193532.299623706 -331133.587913265
 -59410.0191370146 -188849.571762251 -329032.352317145
 -108746.025178926 -180478.799117624 -321026.019314393
 -169917.90906548 -169917.90906548 -299519.295467973
 -241270.829813691 -158345.848346365 -253319.914322746
 -312264.281611295 -145735.456528382 -169434.928926257
 -358898.189052746 -130486.335484316 -40266.6878018798
 -346947.742792125 -111013.460956097 121487.757646598
 -253881.729690994 -89921.9975968074 273704.405659297
 -93029.4559574386 -75522.7084125036 364825.767782791
 83751.5100324349 -95972.7728610959 362258.072976489
 230994.384859035 -118121.646692714 283098.694356222
 320830.217144716 -152149.767873109 146199.931268907
 336601.211086373 -184740.941947814 -5138.97493876415
 294774.27984357 -209363.591707534 -129348.407064121
 227197.319637411 -227197.319637411 -210282.562042487
 158345.848346364 -241270.829813691 -253319.914322746
 99720.4190968337 -252926.362308607 -271182.767270502
 53544.7245569265 -261727.831437777 -275839.635881071
 16709.4272609506 -266544.397745226 -275918.247079177
 -16709.4272609507 -266544.397745226 -275918.247079177
 -53544.7245569266 -261727.831437777 -275839.635881071
 -99720.4190968337 -252926.362308607 -271182.767270502
 -158345.848346365 -241270.829813691 -253319.914322745
 -227197.319637411 -227197.319637411 -210282.562042487
 -294774.27984357 -209363.591707534 -129348.407064121
 -336601.211086373 -184740.941947814 -5138.97493876406
 -320830.217144716 -152149.767873109 146199.931268908
 -230994.384859035 -118121.646692714 283098.694356222
 -83751.5100324348 -95972.7728610959 362258.072976489
 70497.6281209525 -108832.204164779 361443.821037178
 196806.78081454 -137273.605242026 299798.346108303
 279457.40317656 -183549.202268522 188863.046031781
 300795.480919144 -231265.362919788 59113.5396690136
 268887.986787636 -268887.986787636 -53427.531503751
 209363.591707534 -294774.27984357 -129348.407064121
 145735.456528382 -312264.281611295 -169434.928926257
 90816.1632404915 -324347.650434294 -184409.940491367
 48051.6333386639 -332292.223995959 -186356.965003474
 14833.1302579765 -336303.620025086 -184758.906158195
 -14833.1302579765 -336303.620025086 -184758.906158195
 -48051.633338664 -332292.223995959 -186356.965003474
 -90816.1632404917 -324347.650434294 -184409.940491367
 -145735.456528382 -312264.281611295 -169434.928926257
 -209363.591707534 -294774.27984357 -129348.407064121
 -268887.986787636 -268887.986787636 -53427.5315037508
 -300795.480919144 -231265.362919788 59113.5396690137
 -279457.40317656 -183549.202268522 188863.046031781
 -196806.78081454 -137273.605242026 299798.346108303
 -70497.6281209524 -108832.204164779 361443.821037178
 55106.0477949932 -109326.446792637 363960.233443315
 155375.478554032 -139651.823858414 322198.430717972
 225468.103197957 -191797.278243524 244609.767790846
 250392.368362197 -250392.368362197 148537.280613116
 231265.362919788 -300795.480919144 59113.5396690136
 184740.941947814 -336601.211086373 -5138.97493876419
 130486.335484316 -358898.189052746 -40266.6878018799
 81657.9861074529 -371452.387796589 -53019.7784330257
 43104.5429177281 -377763.942541802 -53781.0570287349
 13260.465563067 -380284.383743902 -51613.4433415522
 -13260.4655630671 -380284.383743902 -51613.4433415522
 -43104.5429177281 -377763.942541802 -53781.0570287348
 -81657.986107453 -371452.387796589 -53019.7784330256
 -130486.335484316 -358898.189052746 -40266.6878018799
 -184740.941947814 -336601.211086373 -5138.97493876404
 -231265.362919788 -300795.480919144 59113.5396690137
 -250392.368362197 -250392.368362197 148537.280613116
 -225468.103197957 -191797.278243524 244609.767790846
 -155375.478554032 -139651.823858414 322198.430717972
 -55106.0477949932 -109326.446792637 363960.233443315
 40387.724923989 -94537.9611130701 369982.980127529
 114364.042379952 -120912.637441775 346059.243363604
 168224.086199072 -168224.086199072 301425.469469609
 191797.278243524 -225468.103197957 244609.767790846
 183549.202268522 -279457.40317656 188863.046031781
 152149.767873109 -320830.217144716 146199.931268907
 111013.460956097 -346947.742792125 121487.757646598
 71286.23974509 -360308.047895364 112037.416271698
 38341.1224905169 -365517.562242625 111278.344786288
 11918.2369603707 -366873.126122941 112774.398497786
 -11918.2369603708 -366873.126122941 112774.398497786
 -38341.122490517 -365517.562242625 111278.344786288
 -71286.2397450901 -360308.047895364 112037.416271698
 -111013.460956097 -346947.742792125 121487.757646598
 -152149.767873109 -320830.217144716 146199.931268907
 -183549.202268522 -279457.40317656 188863.046031781
 -191797.278243524 -225468.103197957 244609.767790846
 -168224.086199072 -168224.086199072 301425.469469609
 -114364.042379952 -120912.637441775 346059.243363604
 -40387.7249239889 -94537.96111307 369982.980127529
 29050.0205167349 -64508.1008986003 377426.550770389
 82067.3452702439 -82067.3452702439 366040.84701108
 120912.637441775 -114364.042379952 346059.243363604
 139651.823858414 -155375.478554032 322198.430717972
 137273.605242026 -196806.780814541 299798.346108303
 118121.646692714 -230994.384859035 283098.694356222
 89921.9975968074 -253881.729690994 273704.405659297
 60240.6199011496 -265889.63105677 270425.168596452
 33598.9039264178 -270438.946480699 270536.300487297
 10675.7181484359 -271479.991090332 271368.095913297
 -10675.7181484359 -271479.991090332 271368.095913297
 -33598.9039264178 -270438.946480699 270536.300487297
 -60240.6199011497 -265889.63105677 270425.168596453
 -89921.9975968074 -253881.729690994 273704.405659297
 -118121.646692714 -230994.384859035 283098.694356222
 -137273.605242026 -196806.78081454 299798.346108303
 -139651.823858414 -155375.478554032 322198.430717972
 -120912.637441775 -114364.042379952 346059.243363604
 -82067.3452702438 -82067.3452702438 366040.84701108
 -29050.0205167349 -64508.1008986003 377426.550770389
 22950.227003469 -22950.227003469 382625.893218139
 64508.1008986003 -29050.0205167349 377426.550770389
 94537.9611130701 -40387.724923989 369982.980127529
 109326.446792637 -55106.0477949932 363960.233443315
 108832.204164779 -70497.6281209525 361443.821037178
 95972.7728610958 -83751.510032435 362258.072976489
 75522.7084125036 -93029.4559574387 364825.767782791
 52463.7442658661 -98124.0643813965 367525.813415713
 30216.3717511184 -100171.834329028 369470.667963447
 9788.40289345941 -100696.835121277 370432.631615188
 -9788.40289345943 -100696.835121277 370432.631615188
 -30216.3717511184 -100171.834329028 369470.667963447
 -52463.7442658661 -98124.0643813965 367525.813415713
 -75522.7084125036 -93029.4559574386 364825.767782791
 -95972.7728610959 -83751.5100324349 362258.072976489
 -108832.204164779 -70497.6281209524 361443.821037178
 -109326.446792637 -55106.0477949932 363960.233443315
 -94537.96111307 -40387.7249239889 369982.980127529
 -64508.1008986003 -29050.0205167349 377426.550770389
 -22950.227003469 -22950.227003469 382625.893218139
# End: Data Text
# End: Segment
